# LAMMPS data file written by OVITO Basic 3.0.0-dev806
270 atoms
2 atom types
0.0 7.82191926 xlo xhi
0.0 7.82191926 ylo yhi
0.0 7.82191926 zlo zhi

Atoms  # atomic

1 1 2.65939686 6.57191946 1.78623061
2 1 6.3018817 6.13985714 6.92926979
3 1 5.37271818 0.06083279 4.5431309
4 1 0.28178628 4.95932873 1.48648857
5 1 0.27315824 3.64287524 5.34604387
6 1 6.31641678 5.43302768 1.82304479
7 1 6.98688659 4.03165685 1.42279577
8 1 4.14113055 4.10896878 6.0028721
9 1 7.49684874 0.73993236 3.31466625
10 1 3.95597955 7.04963778 3.75778502
11 1 2.96516108 3.27440128 4.06473011
12 1 1.64187662 6.94602583 4.7051532
13 1 5.16697394 5.95464465 2.74839246
14 1 6.89652606 3.31928361 4.6902673
15 1 5.86114667 3.84841189 0.36502097
16 1 1.05933598 4.36391289 0.83160706
17 1 7.22467247 0.49544608 6.92878311
18 1 1.99759342 7.39407928 1.14155131
19 1 5.12564096 7.38882554 1.53560662
20 1 4.98418155 3.86265373 7.25647154
21 1 1.29126285 2.63460294 5.60184582
22 1 2.97718571 0.57770107 3.11348054
23 1 7.71237054 4.76674972 4.22778741
24 1 0.71487125 2.85714084 5.00363717
25 1 2.92610052 6.59604078 0.00320182
26 1 4.53541215 0.06658307 7.3922926
27 1 7.74801824 0.41704448 1.26274084
28 1 3.70356433 3.32733972 6.69320427
29 1 0.75314163 4.62980316 5.8602642
30 1 3.64850538 1.20669132 6.86021194
31 1 0.33727474 7.46082849 0.53188863
32 1 7.59599321 5.76974597 3.55062469
33 1 4.34136668 4.50814729 0.00574426
34 1 2.69871764 2.47895144 5.37439497
35 1 3.58505358 2.03025306 3.33802
36 1 6.28546733 6.05069398 0.32684453
37 1 0.29859316 0.47515899 2.47341938
38 1 5.08875263 5.99814805 7.36769055
39 1 0.92473006 3.95117454 4.75611378
40 1 7.52058983 5.12122009 1.62931525
41 1 6.42003054 2.77986724 0.1230129
42 1 5.98032518 1.76226496 2.47040349
43 1 3.73588505 4.92834556 0.73505774
44 1 5.04723287 1.37505023 4.59376797
45 1 2.60099786 3.68445171 1.24535413
46 1 6.18953125 1.6763662 1.27172135
47 1 3.88110203 7.26340348 2.22743747
48 1 0.63119588 6.33778149 6.16792578
49 1 2.69737736 0.67321476 1.66181642
50 1 3.87356358 6.50731768 4.68076695
51 1 3.31243083 0.54367157 4.04573552
52 1 6.49161025 6.93457743 7.28591716
53 1 5.4708131 5.95559212 5.76218179
54 1 3.58410572 3.53127201 0.42693803
55 1 1.8780037 3.10530727 2.54328414
56 1 7.23814666 2.89596658 0.012887
57 1 7.60642757 6.48697107 4.14906777
58 1 6.57638617 0.74802547 1.05309769
59 1 3.0338412 3.63269876 7.58866102
60 1 3.61851582 2.8657164 5.46329006
61 1 0.06621747 3.17987683 1.25407517
62 1 6.77840757 5.67438943 6.01972325
63 1 0.3834128 7.28716968 6.68803468
64 1 5.19224226 6.97560058 3.43336169
65 1 4.47836728 0.17226221 4.13086687
66 1 0.54536189 5.53679021 0.61464884
67 1 7.06711117 1.19019364 2.51294824
68 1 4.21676163 1.91888309 5.74695877
69 1 2.60187712 0.57483159 6.90379771
70 1 7.49670005 6.25080199 4.97138074
71 1 3.22617977 1.78882358 2.04635331
72 1 1.09602062 7.20421721 6.42506653
73 1 5.24339565 2.72264896 5.21358014
74 1 2.82126436 6.13088782 3.4241312
75 1 2.13402607 6.33581749 6.22746107
76 1 4.89868062 2.45520346 1.74311072
77 1 1.93607356 0.14386082 6.13036172
78 1 7.5091333 2.21592978 3.10699594
79 1 2.2664428 5.11826888 6.18721307
80 1 5.68393006 2.69318074 7.4771652
81 1 3.92493411 6.89300729 0.69356418
82 1 2.97348618 1.78805906 0.49200514
83 1 6.44839587 7.58952855 3.48413948
84 1 7.36385601 6.33146662 1.08695197
85 1 4.91994685 6.05910583 1.37490857
86 1 0.65617572 1.81108171 5.70120453
87 1 3.36010902 1.03568625 1.20988274
88 1 0.55545967 6.74801386 3.54531588
89 1 1.86976284 5.89683996 0.82835549
90 1 4.51270997 2.83929412 6.16081182
91 1 4.80973718 3.56891226 5.36727319
92 1 5.08237096 4.95820183 0.80481135
93 1 1.74058158 1.18636442 5.93061735
94 1 4.33414588 3.9464591 4.24613364
95 1 1.66349492 4.24171621 5.39159881
96 1 2.78900473 7.18399364 6.58211651
97 1 2.92119806 6.04022411 1.5196905
98 1 4.0381729 0.35802168 2.52280995
99 1 5.37630492 7.52326595 6.09670681
100 1 2.6344361 5.43796394 2.82595117
101 1 6.81371055 7.20308867 0.65229808
102 1 5.97287363 0.50397658 1.56973921
103 1 7.76135383 4.84466933 2.78368801
104 1 6.29220387 4.97182159 6.9015694
105 1 5.28621651 6.97930856 0.17749014
106 1 2.16663323 7.38959208 0.24242271
107 1 1.96902026 0.11339123 2.22469346
108 1 7.20862963 7.01258254 6.39298234
109 1 2.03814749 3.05965502 0.99385908
110 1 1.7065452 5.72565123 7.49883027
111 1 2.49065225 0.32402739 0.97561399
112 1 0.6873499 0.28822294 5.96907671
113 1 3.14268173 4.71993623 5.23097804
114 1 1.85457964 4.28510815 7.44375035
115 1 0.99971536 4.8068139 7.69942253
116 1 7.30867902 2.37467743 0.7112328
117 1 5.08459215 4.60748472 1.92616631
118 1 2.27660433 3.49955272 6.76195628
119 1 3.43319539 7.81407575 0.49271716
120 1 1.40470923 4.81406779 6.44850428
121 1 5.00964878 4.52893545 5.74549169
122 1 3.85445753 5.6814545 2.03970311
123 1 0.74347796 5.22671564 4.93914028
124 1 4.1891727 6.1239418 0.94529287
125 1 2.00030825 5.98050947 2.70955648
126 1 1.3588235 0.52175455 1.09866756
127 1 1.67679281 1.66876424 7.07882097
128 1 4.160664 2.6179733 2.54150403
129 1 6.13294764 6.69822797 6.24029997
130 1 1.435794 5.8305298 5.97830455
131 1 3.27209241 2.07682727 4.65097162
132 1 7.40304664 3.73615733 5.6905068
133 1 4.43775674 2.66483966 7.81916978
134 1 6.30017113 2.13633714 3.94345947
135 1 1.7728265 3.6145031 4.46087419
136 1 1.90363121 3.36668514 3.20226457
137 1 0.39661581 7.1710651 5.0025227
138 1 2.91436366 1.52584533 4.64764746
139 1 0.60100241 7.46022894 3.15527196
140 1 2.84761062 6.32754213 5.00644281
141 1 5.74911621 2.30673616 1.05478792
142 1 2.2406673 3.23334802 0.04797598
143 1 1.14847434 0.65997319 3.75963287
144 1 4.43206809 5.46788786 5.82926444
145 1 7.50079428 2.37461392 1.74540684
146 1 4.6751189 6.81110014 5.11413812
147 1 3.46419249 0.68053975 0.06890743
148 1 2.88005515 5.07335041 1.8520153
149 1 7.64356002 3.76011048 0.15434782
150 1 7.2800928 6.40429253 7.2783439
151 1 1.52718061 1.47801539 4.2193262
152 1 6.39478952 3.96112606 6.90858621
153 1 3.59025945 2.9106617 3.76165351
154 1 3.74042583 1.05069855 4.17858097
155 1 6.71821415 5.25204153 3.41700347
156 1 3.89986541 6.31100879 2.44151338
157 1 1.7806794 1.70911462 5.41907713
158 1 3.74828499 2.37222518 1.55325913
159 1 2.83765128 7.43666392 2.78815988
160 1 5.87246287 3.89348538 6.12230459
161 1 5.34675535 7.01510033 6.64236844
162 1 1.30541301 2.60590651 1.81137519
163 1 0.34976549 3.10835109 2.14718465
164 1 0.80112715 2.55566186 3.39281215
165 1 5.34497274 5.22737972 3.18254121
166 1 0.39393806 5.59222744 2.83918969
167 1 5.21148386 4.76529359 7.19844018
168 1 5.7034879 4.34595963 4.86800141
169 1 4.36131469 0.08291117 1.31284595
170 1 6.53632527 5.32933484 4.55130097
171 1 1.50721634 4.42997104 1.7492223
172 1 0.37594123 4.20750384 6.7385168
173 1 7.03754197 4.4874307 6.10179106
174 1 7.27140859 5.99458454 2.19060991
175 1 0.85270066 5.9537535 7.2316982
176 1 7.27520653 6.95658894 3.34196444
177 1 0.317542 1.48601941 2.84407526
178 1 1.3647551 7.13211578 0.20176101
179 1 5.76568366 0.52383088 3.12147838
180 1 7.10584179 4.55222998 4.51942063
181 1 2.4866274 2.12298598 3.779853
182 1 3.39337877 2.69008968 1.01754229
183 1 1.64990418 7.30930126 7.1467053
184 1 1.11730946 6.17149117 1.30829734
185 1 6.49131372 1.19812178 4.22906395
186 1 6.5120483 1.59079793 7.70695856
187 1 2.79674624 0.56889828 5.99967364
188 1 0.85924338 4.04364253 1.7960935
189 1 3.81204841 2.55887119 7.06981482
190 1 1.18479628 3.00185448 7.46686193
191 1 3.23526556 0.21907311 4.99944626
192 1 4.13542493 5.6677598 3.20514319
193 1 0.68097965 3.46370143 0.93454633
194 1 1.44509106 6.21364013 3.77304472
195 1 6.32662681 0.79034596 2.25636723
196 1 4.53844228 3.85157265 3.12133493
197 1 1.83131655 0.66454901 4.99138851
198 1 3.09772258 2.320709 6.47002058
199 1 1.99748634 7.23998208 5.90097783
200 1 7.40652756 7.44845469 1.84662819
201 1 2.88893421 1.60914275 6.10429713
202 1 5.12171897 1.24313348 1.91826336
203 1 5.61249614 4.88670823 6.17491028
204 1 3.18770062 4.311852 6.15183101
205 1 3.09543788 6.88347362 5.40574092
206 1 7.60025459 3.27436866 3.71218949
207 1 2.10086731 0.73620749 7.71028788
208 1 3.03162291 3.16817281 2.3534654
209 1 3.99720826 3.07666042 4.99757573
210 1 2.13681021 5.01264317 2.01253188
211 1 2.28044333 5.39072322 5.24328364
212 1 7.42682207 5.26797142 7.37028532
213 1 2.17282209 4.14589262 0.80564063
214 1 1.20679574 0.46431546 7.05482716
215 1 6.84166773 2.0142448 4.88996888
216 1 3.30370907 7.37021218 1.28157211
217 2 5.70878553 0.94283029 7.50349472
218 2 3.78883092 7.23916852 6.81820565
219 2 5.96847333 0.98031394 6.13553224
220 2 1.25467887 1.46832271 1.01001854
221 2 2.04828 2.0292481 0.11429373
222 2 4.48963546 1.40165195 7.65644883
223 2 2.64438925 5.6201775 0.20230377
224 2 4.26871411 5.96707063 6.72497596
225 2 6.0196308 5.30740031 0.88388001
226 2 7.48667094 1.10638428 4.22466427
227 2 2.48589652 1.55449304 2.81672389
228 2 4.74744608 0.69276525 3.18968528
229 2 6.74112205 2.4954323 2.46136135
230 2 3.76360054 3.91739887 2.75687651
231 2 5.20032934 3.34139062 1.14799188
232 2 0.43823859 3.89078494 3.02227947
233 2 2.81845386 4.68278102 3.40498635
234 2 5.44155952 6.77785386 2.37201978
235 2 0.07140247 0.29201196 5.12264524
236 2 4.21361206 7.65349832 5.61487557
237 2 6.22545662 7.29781406 4.53519478
238 2 0.07021659 2.06197947 6.4812976
239 2 2.13206011 3.32076242 5.76546175
240 2 6.08225934 3.88762145 4.06561978
241 2 0.02240229 5.51532514 5.93394269
242 2 1.85504426 0.06692755 4.24506384
243 2 4.57123545 5.77639961 4.2046903
244 2 7.80970025 1.33590442 0.74305706
245 2 4.40509538 1.11726683 1.15013892
246 2 6.05021536 7.58431603 0.20130053
247 2 1.2021338 1.75096424 2.28309081
248 2 4.16390141 4.30389601 1.4881727
249 2 6.12932633 3.60350142 2.06668561
250 2 0.94267104 7.5045567 2.23110931
251 2 3.47696271 4.91845646 7.23553227
252 2 1.04135855 6.20292816 2.40781335
253 2 0.63513194 2.10832661 4.29142271
254 2 4.74748308 2.02574591 3.22796153
255 2 6.70376605 7.67828536 5.67602827
256 2 1.54844896 4.42793702 3.61386992
257 2 3.74249059 4.70767459 4.417082
258 2 6.1048359 4.58547142 3.05859398
259 2 1.53372873 5.49213308 4.46659686
260 2 2.85486365 7.01604945 3.65425269
261 2 6.77068186 6.73996573 2.35612947
262 2 0.18816229 0.88507269 7.29200535
263 2 4.75257726 1.06153206 5.6394177
264 2 6.61807418 2.11206424 6.05214557
265 2 0.36276043 3.22228618 7.08351334
266 2 5.38202666 2.68925915 4.10942026
267 2 5.70608283 2.90882566 6.45311124
268 2 0.20225692 6.47521371 0.19683359
269 2 5.80208859 6.03356719 4.65982783
270 2 6.83392004 4.66199685 0.07403314
