################################################################################
# Symmetry function scaling data.
################################################################################
# Col  Name     Description
################################################################################
# 1    e_index  Element index.
# 2    sf_index Symmetry function index.
# 3    sf_min   Symmetry function minimum.
# 4    sf_max   Symmetry function maximum.
# 5    sf_mean  Symmetry function mean.
# 6    sf_sigma Symmetry function sigma.
#########################################################################################################################
#        1          2                        3                        4                        5                        6
#  e_index   sf_index                   sf_min                   sf_max                  sf_mean                 sf_sigma
#########################################################################################################################
         1          1   0.0000000000000000E+00   4.9589430798220308E-01   1.4567765717662647E-03   1.0646912103432261E-02
         1          2   0.0000000000000000E+00   3.5310126317944601E-01   2.2380968582738964E-04   4.3526595509986599E-03
         1          3   0.0000000000000000E+00   4.4077145558002140E-01   3.0673364757773190E-05   1.7468323433823135E-03
         1          4   0.0000000000000000E+00   3.1576906159946677E-01   4.1133283812704773E-04   1.3349141688707782E-03
         1          5   0.0000000000000000E+00   4.8499163240039271E-02   2.4570141794844334E-03   4.1845644406335366E-03
         1          6   0.0000000000000000E+00   1.3865766580625249E-01   6.5337150482278582E-03   1.0905524232128561E-02
         1          7   0.0000000000000000E+00   2.7119363319550444E-01   8.3212176698605009E-03   1.6670276227072296E-02
         1          8   0.0000000000000000E+00   3.4904144666719855E-01   3.8426206663781711E-03   1.2899351025546164E-02
         1          9   0.0000000000000000E+00   8.7108680322769538E-01   1.5878464767998906E-02   3.4139224941601154E-02
         1         10   0.0000000000000000E+00   7.2368867480963206E-01   2.9682145472406463E-03   1.7079963876683802E-02
         1         11   0.0000000000000000E+00   4.9929549436890625E-01   5.7106228344718878E-05   2.4867011743872481E-03
         1         12   0.0000000000000000E+00   9.0206819544685526E-02   6.1116310795983533E-03   9.9259082359019323E-03
         1         13   0.0000000000000000E+00   2.5645058423288258E-01   1.2624561703969866E-02   2.1347091039456739E-02
         1         14   0.0000000000000000E+00   3.4367507665486891E-01   1.8673941439065943E-02   3.1781770004232393E-02
         1         15   0.0000000000000000E+00   4.7830375709161704E-01   2.5412547649603382E-02   4.1471107235999047E-02
         1         16   0.0000000000000000E+00   1.1513662735003150E+00   1.5797554420968746E-01   1.3937091983772487E-01
         1         17   0.0000000000000000E+00   1.3721628561369659E+00   1.2749634246483585E-01   1.0921041196502114E-01
         1         18   0.0000000000000000E+00   1.2897393216656894E+00   7.9161339005176912E-02   8.1584906872664550E-02
         1         19   0.0000000000000000E+00   1.6087979569424060E+00   2.8111873235368190E-01   2.2478128618814480E-01
         1         20   0.0000000000000000E+00   1.6036526900339287E+00   2.0375960820410252E-01   1.8290301810552118E-01
         1         21   0.0000000000000000E+00   1.7046219672624714E+00   1.4207610251019123E-01   1.2372369443289420E-01
         1         22   0.0000000000000000E+00   1.5107940633173866E+00   5.8286286870358243E-02   8.0353984180540877E-02
         1         23   0.0000000000000000E+00   1.6461144308665221E-01   1.9603425812434891E-02   2.4280697143402041E-02
         1         24   0.0000000000000000E+00   4.3745715828834808E-01   4.8309530366781407E-02   6.0676931640162461E-02
         1         25   0.0000000000000000E+00   7.7893463803967578E-01   7.9965652258054923E-02   1.0754009468003495E-01
         1         26   0.0000000000000000E+00   1.0951939321383446E+00   8.9350321257056733E-02   1.3423827265362528E-01
         1         27   0.0000000000000000E+00   9.3024564978649926E-01   8.4626878623985172E-03   3.2843123968419694E-02
         1         28   0.0000000000000000E+00   3.1657407950553358E+00   7.4445728944733491E-01   4.6294967221673672E-01
         1         29   0.0000000000000000E+00   1.1890925364622091E+00   3.9179399940527920E-01   1.8779840938379691E-01
         1         30   0.0000000000000000E+00   4.4595086711949818E+00   1.3872680098796508E+00   7.1841141371848238E-01
         1         31   0.0000000000000000E+00   5.1236231302855346E+00   1.5023641779040857E+00   7.4962671297678318E-01
         1         32   0.0000000000000000E+00   5.1545258020668010E+00   1.4758023912728422E+00   7.0184704742130477E-01
         1         33   0.0000000000000000E+00   4.8152321483983762E+00   1.4122731221739517E+00   7.2774745144474995E-01
         1         34   0.0000000000000000E+00   4.2315147909367949E+00   1.1869032989405259E+00   6.7032585391212984E-01
         1         35   0.0000000000000000E+00   1.0476287615125073E+00   8.9567375073175207E-03   3.6612387893568375E-02
         1         36   0.0000000000000000E+00   2.3381764271142851E+00   7.6401314563079603E-01   3.7455215444521911E-01
         1         37   0.0000000000000000E+00   5.5566741532227475E+00   1.7848603590698682E+00   8.7408418162978496E-01
         1         38   0.0000000000000000E+00   8.1677683286142866E+00   2.6965915553887778E+00   1.2968182831248793E+00
         1         39   0.0000000000000000E+00   9.3141808064630673E+00   3.1218037710104216E+00   1.5569072314254058E+00
         1         40   0.0000000000000000E+00   9.5272413904733426E+00   2.9124241296767153E+00   1.5082523765263924E+00
         1         41   0.0000000000000000E+00   7.8907504159967097E+00   2.3983085850456765E+00   1.1560194061521549E+00
         1         42   0.0000000000000000E+00   7.3832809188000406E+00   2.0638645590360611E+00   1.0081438694844318E+00
         1         43   0.0000000000000000E+00   2.7304347620538532E+00   2.8009713928709939E-01   3.9061083270302815E-01
         1         44   0.0000000000000000E+00   5.7188216219450609E+00   1.7241463738192788E+00   9.2872511081349940E-01
         1         45   0.0000000000000000E+00   4.8264480450080240E+00   1.2488149737119343E+00   7.4100251372835624E-01
         1         46   0.0000000000000000E+00   2.2357608804752278E+00   1.1812295326422946E-01   2.0078529054898461E-01
         1         47   0.0000000000000000E+00   3.7906820529377279E+00   7.7360901110973224E-01   5.2559638757257232E-01
         1         48   0.0000000000000000E+00   1.6190298166002572E+00   2.4802789835369491E-02   6.7908243706332722E-02
         1         49   0.0000000000000000E+00   8.3273400837877742E-01   3.1467778182273716E-03   2.1030357625499031E-02
         1         50   0.0000000000000000E+00   1.2728067533402287E-02   1.1107574254660638E-05   1.0820783047074869E-04
         1         51   0.0000000000000000E+00   5.7472094753169686E-03   4.4061985431548552E-06   4.6093625545725293E-05
         1         52   0.0000000000000000E+00   9.9190689850015973E-03   7.0713392581686886E-06   7.8680571775322549E-05
         1         53   0.0000000000000000E+00   8.1109137213106180E-03   1.7134164248148332E-05   7.7406014863680108E-05
         1         54   0.0000000000000000E+00   1.6669840738874533E-02   4.0436503717293615E-05   1.2572178689954403E-04
         1         55   0.0000000000000000E+00   1.0224124940047831E-03   1.2524503028632174E-06   5.4478715576218264E-06
         1         56   0.0000000000000000E+00   2.0433740323285543E-02   2.9475200606620320E-05   1.6441540336709174E-04
         1         57   0.0000000000000000E+00   6.2114588934981019E-04   5.1094832760411112E-07   2.4618676602330129E-06
         1         58   0.0000000000000000E+00   6.2479305831603712E-03   4.4366783371743091E-06   3.2445020590794605E-05
         1         59   0.0000000000000000E+00   2.6222503379974131E-03   2.9884237253188669E-06   1.8137323867690346E-05
         1         60   0.0000000000000000E+00   3.0022570296259952E-03   1.7122256261098838E-06   1.1776854833394561E-05
         1         61   0.0000000000000000E+00   2.0597972306440837E-02   4.4056537570659177E-05   2.1994097063540732E-04
         1         62   0.0000000000000000E+00   2.5075309227826890E+00   1.2432724032002827E-01   1.1519837919964701E-01
         1         63   0.0000000000000000E+00   2.0134941933032023E-02   9.7790516824658886E-05   3.0652660335107141E-04
         1         64   0.0000000000000000E+00   1.3507127857679869E-02   1.2684961487376457E-05   8.0100599272949619E-05
         1         65   0.0000000000000000E+00   1.0380778388512989E-02   1.1363353834086180E-04   2.7615754627025756E-04
         1         66   0.0000000000000000E+00   1.0821602916794994E-02   1.9296341788510159E-05   1.0357121141502286E-04
         1         67   0.0000000000000000E+00   1.2206875078008043E-02   2.8922432770386495E-05   1.1630951543779261E-04
         1         68   0.0000000000000000E+00   8.3499161021401390E-03   3.2115491332126954E-06   2.7432684634121863E-05
         1         69   0.0000000000000000E+00   7.5148869870979903E-04   1.7419454324917080E-06   6.1761926011910991E-06
         1         70   0.0000000000000000E+00   8.4517019475220372E-03   4.9384677979260986E-06   4.2437575108755561E-05
         1         71   0.0000000000000000E+00   3.1283179586702952E+00   2.2478655654975066E-01   1.9644539404855468E-01
         1         72   0.0000000000000000E+00   1.1509226230747863E+01   9.9808518662296897E-01   8.5032461451632280E-01
         1         73   0.0000000000000000E+00   2.1766833170920905E+00   1.9098215685005016E-01   1.6266543691551130E-01
         1         74   0.0000000000000000E+00   4.0725969876366216E-02   2.7025701875749131E-04   8.4895683858200754E-04
         1         75   0.0000000000000000E+00   2.3576186197798502E-02   4.7227052443336647E-05   2.2743062808395771E-04
         1         76   0.0000000000000000E+00   3.1013365071812043E-03   1.9884860995188828E-06   1.2391398041082132E-05
         1         77   0.0000000000000000E+00   1.0917107273123306E-02   1.9527874343324567E-05   8.5037266190787992E-05
         1         78   0.0000000000000000E+00   1.9070430684979331E-01   5.0353395630319399E-04   1.6514020220338172E-03
         1         79   0.0000000000000000E+00   5.3050943214599855E-01   4.9989432339634810E-03   8.1785207314893724E-03
         1         80   0.0000000000000000E+00   4.7504135418666898E-01   3.1932062553183915E-03   6.1764791207590403E-03
         1         81   0.0000000000000000E+00   2.2173337213505306E-01   2.1702606870486196E-03   3.5765973881959263E-03
         1         82   0.0000000000000000E+00   1.5934112645221912E-01   6.3948842489914225E-04   1.3900222873650843E-03
         1         83   0.0000000000000000E+00   2.6822658208514252E+00   8.4204957299370192E-02   8.7695779913804395E-02
         1         84   0.0000000000000000E+00   2.4619328808088392E+00   6.7036427601994339E-02   7.3021217760638635E-02
         1         85   0.0000000000000000E+00   1.0659012121202476E+00   3.4313537021983601E-02   3.5531305343865754E-02
         1         86   0.0000000000000000E+00   8.4572153419970142E-01   1.9419226874508692E-02   2.2470377218140779E-02
         1         87   0.0000000000000000E+00   3.1725074636526440E-01   1.0159201850906711E-02   1.1468056022401363E-02
         1         88   0.0000000000000000E+00   2.0658157440966296E-01   2.3802321309636322E-03   3.2869120867671320E-03
         1         89   0.0000000000000000E+00   9.0045480956764532E+00   4.8654690078084045E-01   4.4284280233053958E-01
         1         90   0.0000000000000000E+00   8.5594829210490850E+00   4.3100552537543324E-01   3.9752761429223910E-01
         1         91   0.0000000000000000E+00   3.5872866993047383E+00   1.9514655040152032E-01   1.7751917350817151E-01
         1         92   0.0000000000000000E+00   3.1339754181069011E+00   1.4364796745446393E-01   1.3515873499044465E-01
         1         93   0.0000000000000000E+00   1.0646142885085690E+00   5.8100346484829632E-02   5.4076703799867926E-02
         1         94   0.0000000000000000E+00   6.9739042982999877E-01   2.4695744448408496E-02   2.4274750184145277E-02
         1         95   0.0000000000000000E+00   2.8480920405399619E+00   9.6215827119260078E-02   9.6623661778022757E-02
         1         96   0.0000000000000000E+00   2.2912310548636594E+01   1.7195833084833270E+00   1.4836815946938153E+00
         1         97   0.0000000000000000E+00   2.2244997644212145E+01   1.5988799116247832E+00   1.3862796080455797E+00
         1         98   0.0000000000000000E+00   8.4600503446748316E+00   5.7168648212696638E-01   5.0063291939436372E-01
         1         99   0.0000000000000000E+00   2.6985509943856818E+00   2.0455581967681635E-01   1.7771855129090255E-01
         1        100   0.0000000000000000E+00   5.0668167186670601E+01   4.7840600743673960E+00   4.0365419509189557E+00
         1        101   0.0000000000000000E+00   4.9661422649075007E+01   4.5674780962367638E+00   3.8614338557428409E+00
         1        102   0.0000000000000000E+00   2.0215347542480256E+01   1.9128329527030321E+00   1.6152077272053458E+00
         1        103   0.0000000000000000E+00   1.9222098216689261E+01   1.6998943076333271E+00   1.4452332649950883E+00
         1        104   0.0000000000000000E+00   5.9312664711269711E+00   5.6694797801498387E-01   4.7943571243124472E-01
         1        105   0.0000000000000000E+00   5.0328068139908595E+00   3.9308416185131562E-01   3.3913290891264913E-01
         1        106   0.0000000000000000E+00   2.3569257306553805E+01   1.7999775367313589E+00   1.5512842658506878E+00
         1        107   0.0000000000000000E+00   2.2881402292237784E+01   1.6818811280602390E+00   1.4555646303947256E+00
         2          1   0.0000000000000000E+00   3.8698120343396057E-02   2.6269502625289766E-04   6.6873446726596283E-04
         2          2   0.0000000000000000E+00   3.0332770232815087E-01   3.3518499432225353E-04   1.1985427415919291E-03
         2          3   0.0000000000000000E+00   1.2280459467943216E-02   1.7158755586702344E-05   1.0881589016834837E-04
         2          4   0.0000000000000000E+00   8.9045678283432378E-02   5.7524678949738240E-03   8.6014863671816568E-03
         2          5   0.0000000000000000E+00   6.6034721081790121E-02   7.8778888078518891E-03   7.0805964544434427E-03
         2          6   0.0000000000000000E+00   2.1546082022255034E-01   1.5297016339451778E-02   2.3286869290881057E-02
         2          7   0.0000000000000000E+00   1.6030661699462662E-01   7.2301845018950721E-03   1.0550418058167801E-02
         2          8   0.0000000000000000E+00   4.1925214511640307E-01   1.9481994810060743E-02   3.3438256180673150E-02
         2          9   0.0000000000000000E+00   1.3956719528504352E-01   1.8828918349974811E-03   6.2879673007762765E-03
         2         10   0.0000000000000000E+00   5.7647770648597318E-01   8.9965097476733483E-03   2.3342273322835890E-02
         2         11   0.0000000000000000E+00   6.5308286041763075E-01   1.5593338244068089E-03   1.0396950961106622E-02
         2         12   0.0000000000000000E+00   4.7766535785530262E-01   6.5888180334833887E-02   4.2282889289478473E-02
         2         13   0.0000000000000000E+00   2.6950502147794864E-01   2.9844358687858293E-02   2.1627675284317152E-02
         2         14   0.0000000000000000E+00   1.5115830702043270E-01   1.4308815091450090E-02   1.9542630509765940E-02
         2         15   0.0000000000000000E+00   8.7940586165886639E-02   1.6454233384877438E-02   9.9986970447215676E-03
         2         16   0.0000000000000000E+00   2.2922311812096238E-01   5.5881994620845997E-02   2.7011056368111352E-02
         2         17   0.0000000000000000E+00   5.7839876964971493E-01   4.3720239589088869E-02   6.3444903485179810E-02
         2         18   0.0000000000000000E+00   4.0555625412036145E-01   9.0956283100906268E-02   5.5225755784543223E-02
         2         19   0.0000000000000000E+00   4.1311291400176542E-01   7.1489141284554227E-03   1.9655955509584235E-02
         2         20   0.0000000000000000E+00   1.0549043253876385E+00   2.5504714636451356E-03   1.6898811666314989E-02
         2         21   0.0000000000000000E+00   1.0571897689583729E+00   2.1147456713864071E-01   1.1619228432009214E-01
         2         22   0.0000000000000000E+00   1.8698466397585869E-01   6.8772051414562121E-02   3.3851870260051556E-02
         2         23   0.0000000000000000E+00   4.8202489597336212E-01   1.6038629816271771E-01   9.9603608520994119E-02
         2         24   0.0000000000000000E+00   1.8235655200724201E+00   1.8721904462579286E-01   2.3885167951062827E-01
         2         25   0.0000000000000000E+00   7.8535744058021317E-01   1.9525012137191450E-01   1.4652758891960196E-01
         2         26   0.0000000000000000E+00   1.0028401571458236E+00   1.9376153438355589E-01   1.2902419653135924E-01
         2         27   0.0000000000000000E+00   1.1740520997275359E+00   2.9005082339534005E-01   1.4161991650112787E-01
         2         28   0.0000000000000000E+00   1.2787167418439975E+00   2.8315480217569394E-01   1.7469416820623968E-01
         2         29   0.0000000000000000E+00   6.0398702350965727E-01   7.6768228476493585E-03   2.6091733458826209E-02
         2         30   0.0000000000000000E+00   3.8447286968631578E-01   1.4297160966477085E-01   7.3366896171395718E-02
         2         31   0.0000000000000000E+00   9.2172959676887090E-01   3.2895697300931837E-01   1.5922498205376756E-01
         2         32   0.0000000000000000E+00   1.4180343539624254E+00   5.2833059289183326E-01   2.3885810021436774E-01
         2         33   0.0000000000000000E+00   1.7969359232916264E+00   6.5928109113741307E-01   3.6727587776842091E-01
         2         34   0.0000000000000000E+00   2.0015012518504829E+00   5.2916904119447383E-01   3.8933856711948150E-01
         2         35   0.0000000000000000E+00   1.9070971634126752E+00   3.7464944866466743E-01   2.5296264691079584E-01
         2         36   0.0000000000000000E+00   1.8951729702699542E+00   4.6815054006560219E-01   2.2896850892184523E-01
         2         37   0.0000000000000000E+00   1.8465665703855603E+00   4.0093645915062598E-01   2.5042894171204205E-01
         2         38   0.0000000000000000E+00   7.5414755028270175E-01   8.1842745715709452E-03   2.9576830729056910E-02
         2         39   0.0000000000000000E+00   2.0134979332614358E+00   2.0969901348051382E-02   6.5987526783950520E-02
         2         40   0.0000000000000000E+00   7.2074643845214037E-01   2.8396646762227096E-01   1.3999227393264208E-01
         2         41   0.0000000000000000E+00   1.6716786102656427E+00   6.6383298198116369E-01   3.3030688288710952E-01
         2         42   0.0000000000000000E+00   2.5771218042607416E+00   9.8637129992613504E-01   4.9995808620985560E-01
         2         43   0.0000000000000000E+00   3.0737393635835124E+00   1.1095342499522012E+00   5.2300669563859881E-01
         2         44   0.0000000000000000E+00   1.6118505498169514E-02   4.2210429020533377E-05   1.6263694771001845E-04
         2         45   0.0000000000000000E+00   3.0896269272943924E+00   1.1803881968682541E+00   5.5289828535314767E-01
         2         46   0.0000000000000000E+00   3.1398927019565539E+00   1.0246723847604355E+00   6.5725167011320296E-01
         2         47   0.0000000000000000E+00   2.7402802362142364E+00   6.1082461596597670E-01   4.5663299016907305E-01
         2         48   0.0000000000000000E+00   2.5744530214311991E+00   5.1889161537732464E-01   3.0052812066263490E-01
         2         49   0.0000000000000000E+00   2.3272280051227354E+00   5.9524762906747430E-01   2.9779265453103121E-01
         2         50   0.0000000000000000E+00   2.3544307544718159E+00   2.9090392938188991E-01   2.4226272327003084E-01
         2         51   0.0000000000000000E+00   1.5317355619813011E+00   3.8901814040995845E-02   7.9553945836082871E-02
         2         52   0.0000000000000000E+00   1.9629116043757311E+00   7.3673723672881414E-03   3.8809263437887473E-02
         2         53   0.0000000000000000E+00   2.3850618101360913E-02   1.3868749776828526E-05   1.6541716559318221E-04
         2         54   0.0000000000000000E+00   1.3791049265710889E-02   5.3183111550210575E-06   8.4807885209769814E-05
         2         55   0.0000000000000000E+00   8.3646818946667197E-03   2.7866244327178348E-06   4.7212994824029369E-05
         2         56   0.0000000000000000E+00   3.8895605418847188E-03   1.9224284141359775E-05   8.1572297699083048E-05
         2         57   0.0000000000000000E+00   9.1335258878009959E-03   5.6031543972483085E-05   2.2799865768661389E-04
         2         58   0.0000000000000000E+00   1.2007865018374565E-03   3.6731133128871248E-06   1.2614016913709611E-05
         2         59   0.0000000000000000E+00   1.3691479681709202E-02   1.1005642346043573E-04   3.6055694912508782E-04
         2         60   0.0000000000000000E+00   3.8114826657382425E-03   2.5390277745118756E-05   1.0196630646825478E-04
         2         61   0.0000000000000000E+00   6.0677958864823909E-03   1.7721282054299715E-05   6.6158644068780038E-05
         2         62   0.0000000000000000E+00   1.9986951341872526E-02   1.4612376267410189E-05   9.5885917032358559E-05
         2         63   0.0000000000000000E+00   2.0840289485784371E-03   8.1906873619610415E-06   3.9500163458325574E-05
         2         64   0.0000000000000000E+00   7.3816698118198631E-04   1.5560364599773287E-06   5.9278953417757182E-06
         2         65   0.0000000000000000E+00   2.2363192185171315E-03   9.0594765928498756E-06   4.8360484854821864E-05
         2         66   0.0000000000000000E+00   9.3613571270453888E-03   3.6825704664713420E-06   3.5329749010902360E-05
         2         67   0.0000000000000000E+00   1.0611596180820815E-03   4.0669506728680504E-06   2.1545060019607995E-05
         2         68   0.0000000000000000E+00   2.4038081639750934E-03   3.4722132518693471E-06   1.6552542740133902E-05
         2         69   0.0000000000000000E+00   7.1564065506125266E-04   2.1002755823857081E-06   1.1134834918673341E-05
         2         70   0.0000000000000000E+00   2.6812484130849961E-03   7.6352829815976584E-06   4.2601134982222876E-05
         2         71   0.0000000000000000E+00   3.6537810772914641E-03   7.1137423505035410E-07   1.1422307930906598E-05
         2         72   0.0000000000000000E+00   1.4802592350448539E-03   4.0502042547543271E-06   2.3265309078405683E-05
         2         73   0.0000000000000000E+00   2.9266044933047190E-04   5.5853793367196383E-07   4.0240431341161298E-06
         2         74   0.0000000000000000E+00   8.6969498231161194E-03   3.6880351616358414E-06   3.9266586302474140E-05
         2         75   0.0000000000000000E+00   8.3911704950533972E-04   6.0034029965083223E-07   3.7661943329189958E-06
         2         76   0.0000000000000000E+00   4.9013914613196393E-03   1.2903403776598308E-06   2.4720108446740893E-05
         2         77   0.0000000000000000E+00   1.0142309202456326E-02   9.6721212357250041E-05   2.7949575408148789E-04
         2         78   0.0000000000000000E+00   2.4306946797486607E-02   1.6115518336349750E-03   1.7612880836325670E-03
         2         79   0.0000000000000000E+00   3.9135256376217620E-02   6.5184983672780090E-05   2.8872891986003252E-04
         2         80   0.0000000000000000E+00   4.3750844015826287E-03   2.4858877261494806E-05   8.7564555736407228E-05
         2         81   0.0000000000000000E+00   9.5858134584964391E-03   3.9844785335969412E-04   4.9258442672832120E-04
         2         82   0.0000000000000000E+00   2.2343769348394344E-02   1.7777873892154573E-05   1.0959319901632099E-04
         2         83   0.0000000000000000E+00   1.9662903487348651E-03   5.5019804560455317E-06   2.4467947712415467E-05
         2         84   0.0000000000000000E+00   3.5903426793284939E-03   8.4006004963074339E-05   1.2400775993732800E-04
         2         85   0.0000000000000000E+00   8.7891718228025730E-04   4.8986036426890057E-06   1.3414699085744697E-05
         2         86   0.0000000000000000E+00   5.1574782967748231E-04   1.6046605230536465E-06   5.2247725155720707E-06
         2         87   0.0000000000000000E+00   4.1802488229136423E-04   6.8471941781339908E-08   1.3259072446595438E-06
         2         88   0.0000000000000000E+00   5.4620422945962795E-04   3.9126834384048319E-06   9.8178803209159164E-06
         2         89   0.0000000000000000E+00   3.5157730969975559E-04   8.3824578770971974E-07   4.7821984022061946E-06
         2         90   0.0000000000000000E+00   6.5542059015707196E-03   1.8367101050920427E-06   2.5906234100667327E-05
         2         91   0.0000000000000000E+00   4.6073541390227919E-04   2.6947906746592943E-07   1.7591952597314609E-06
         2         92   0.0000000000000000E+00   3.7189296482599166E-02   1.2976353873999347E-03   1.8429604874578228E-03
         2         93   0.0000000000000000E+00   2.7910815315197485E-04   6.1481430118854024E-07   3.7804299279822796E-06
         2         94   0.0000000000000000E+00   1.4987700213102099E-03   3.7073956371135994E-06   1.5976836970786210E-05
         2         95   0.0000000000000000E+00   1.3793359407039714E-02   5.7479620184333308E-05   2.4444315813161501E-04
         2         96   0.0000000000000000E+00   1.2450750181593829E-02   8.5267075577256491E-06   7.4669350430062734E-05
         2         97   0.0000000000000000E+00   1.0047688286721970E-02   3.5445736489686081E-05   1.6262144398611716E-04
         2         98   0.0000000000000000E+00   1.7909588405658374E-04   1.2439747336664437E-07   1.4444049864624702E-06
         2         99   0.0000000000000000E+00   7.2881122295875558E-03   2.0164295160570293E-05   1.0146611331162070E-04
         2        100   0.0000000000000000E+00   5.8033437654883653E-03   1.0627593985034144E-05   6.2342524484412451E-05
         2        101   0.0000000000000000E+00   5.5066818317968972E-03   4.3760475577126501E-06   3.3490104418242729E-05
         2        102   0.0000000000000000E+00   4.4641289709222978E-03   1.0523120465477467E-06   1.7613266900831872E-05
         2        103   0.0000000000000000E+00   1.3577039513714563E-03   1.1514610021961932E-07   4.0809399488951773E-06
         2        104   0.0000000000000000E+00   1.0461010941970342E-04   2.2462987861335049E-09   2.1829284479699670E-07
         2        105   0.0000000000000000E+00   2.0523989869297593E-01   4.7799975288625660E-03   7.1968678686619974E-03
         2        106   0.0000000000000000E+00   1.0333505261050284E-01   3.0647819693307207E-03   3.9631098441500817E-03
         2        107   0.0000000000000000E+00   5.6583398911136208E-02   7.8596181804716078E-04   1.8451730021943351E-03
         2        108   0.0000000000000000E+00   4.0103165837625201E-02   5.8198522332117452E-04   1.3440372696883007E-03
         2        109   0.0000000000000000E+00   4.9617602595003561E-03   3.4357827593655813E-05   1.0970212695742599E-04
         2        110   0.0000000000000000E+00   3.9581808456658520E-03   2.5105568746693985E-05   8.3546987987116709E-05
         2        111   0.0000000000000000E+00   3.0139670197911850E-03   1.7241909803999580E-05   6.0392791167586977E-05
         2        112   0.0000000000000000E+00   2.4962666313165242E-02   1.6222195150878907E-04   4.5362861450344338E-04
         2        113   0.0000000000000000E+00   2.7713259565213082E-02   3.1038453874753723E-04   6.5810371585962879E-04
         2        114   0.0000000000000000E+00   1.4370000988868441E-02   3.9341819428984338E-05   1.4498199765766861E-04
         2        115   0.0000000000000000E+00   4.1198081715484959E-03   1.6526356568659955E-05   5.7870677885888915E-05
         2        116   0.0000000000000000E+00   3.3672012072519730E-04   1.5936169203423981E-08   8.3441530087005554E-07
         2        117   0.0000000000000000E+00   3.6705322038242694E-01   2.8884163341339853E-02   3.1099010006596543E-02
         2        118   0.0000000000000000E+00   2.7138709978866332E-01   1.8308986554372454E-02   2.0580327335668218E-02
         2        119   0.0000000000000000E+00   1.9229633042179062E-01   1.0821152005540298E-02   1.2875278008595789E-02
         2        120   0.0000000000000000E+00   9.6036435138721496E-02   3.8171313810149801E-03   5.2060293293882372E-03
         2        121   0.0000000000000000E+00   2.9576786508419054E-04   1.0724110087624491E-06   4.4212119683654070E-06
         2        122   0.0000000000000000E+00   1.5087176064995811E+00   2.2595731613261902E-01   2.0245128722341330E-01
         2        123   0.0000000000000000E+00   5.6259410601484350E-01   5.7945848297291061E-02   5.6203207979953873E-02
